Title: * spicenetlist
Date: Tue Sep 17 14:52:58  2019
Plotname: AC Analysis
Flags: complex
No. Variables: 4
No. Points: 3302
Variables:
	0	frequency	frequency grid=3
	1	v(v_out)	voltage
	2	v(v_in)	voltage
	3	i(i(v_v1))	current
Values:
 0	1.000000000000000e+001,0.000000000000000e+000
	1.463501967816321e-001,-4.682048476200393e-003
	9.998840701255139e-002,-2.188667346804927e-004
	-1.000000000009999e-004,-9.992956098115502e-017

 1	1.002305238077900e+001,0.000000000000000e+000
	1.463482670247383e-001,-4.692660518428244e-003
	9.998839965582661e-002,-2.193712207390201e-004
	-1.000000000009999e-004,-1.001599225445502e-016

 2	1.004615790278395e+001,0.000000000000000e+000
	1.463463285167748e-001,-4.703295782717727e-003
	9.998839226514843e-002,-2.198768693846143e-004
	-1.000000000009999e-004,-1.003908151463774e-016

 3	1.006931668851804e+001,0.000000000000000e+000
	1.463443812191284e-001,-4.713954314203274e-003
	9.998838484036009e-002,-2.203836832947399e-004
	-1.000000000009999e-004,-1.006222400120914e-016

 4	1.009252886076684e+001,0.000000000000000e+000
	1.463424250930007e-001,-4.724636158064424e-003
	9.998837738130420e-002,-2.208916651529935e-004
	-1.000000000009999e-004,-1.008541983677107e-016

 5	1.011579454259898e+001,0.000000000000000e+000
	1.463404600979702e-001,-4.735341359376198e-003
	9.998836988782262e-002,-2.214008176491572e-004
	-1.000000000009999e-004,-1.010866914438328e-016

 6	1.013911385736679e+001,0.000000000000000e+000
	1.463384861956863e-001,-4.746069963497231e-003
	9.998836235975647e-002,-2.219111434791873e-004
	-1.000000000009999e-004,-1.013197204730611e-016

 7	1.016248692870695e+001,0.000000000000000e+000
	1.463365033459693e-001,-4.756822015653822e-003
	9.998835479694621e-002,-2.224226453452305e-004
	-1.000000000009999e-004,-1.015532866902054e-016

 8	1.018591388054117e+001,0.000000000000000e+000
	1.463345115090665e-001,-4.767597561185817e-003
	9.998834719923146e-002,-2.229353259556585e-004
	-1.000000000009999e-004,-1.017873913343909e-016

 9	1.020939483707680e+001,0.000000000000000e+000
	1.463325106452416e-001,-4.778396645496064e-003
	9.998833956645110e-002,-2.234491880250534e-004
	-1.000000000009999e-004,-1.020220356461370e-016

 10	1.023292992280754e+001,0.000000000000000e+000
	1.463305007137477e-001,-4.789219313946504e-003
	9.998833189844339e-002,-2.239642342742513e-004
	-1.000000000009999e-004,-1.022572208703345e-016

 11	1.025651926251407e+001,0.000000000000000e+000
	1.463284816748789e-001,-4.800065612068825e-003
	9.998832419504573e-002,-2.244804674303210e-004
	-1.000000000009999e-004,-1.024929482526310e-016

 12	1.028016298126473e+001,0.000000000000000e+000
	1.463264534881215e-001,-4.810935585380749e-003
	9.998831645609478e-002,-2.249978902266261e-004
	-1.000000000009999e-004,-1.027292190443134e-016

 13	1.030386120441616e+001,0.000000000000000e+000
	1.463244161125654e-001,-4.821829279414335e-003
	9.998830868142652e-002,-2.255165054027934e-004
	-1.000000000009999e-004,-1.029660344976557e-016

 14	1.032761405761397e+001,0.000000000000000e+000
	1.463223695075182e-001,-4.832746739788533e-003
	9.998830087087610e-002,-2.260363157047426e-004
	-1.000000000009999e-004,-1.032033958675051e-016

 15	1.035142166679343e+001,0.000000000000000e+000
	1.463203136316835e-001,-4.843688012120029e-003
	9.998829302427791e-002,-2.265573238847208e-004
	-1.000000000009999e-004,-1.034413044132209e-016

 16	1.037528415818012e+001,0.000000000000000e+000
	1.463182484441850e-001,-4.854653142144489e-003
	9.998828514146563e-002,-2.270795327012810e-004
	-1.000000000009999e-004,-1.036797613952305e-016

 17	1.039920165829058e+001,0.000000000000000e+000
	1.463161739039534e-001,-4.865642175621430e-003
	9.998827722227215e-002,-2.276029449193386e-004
	-1.000000000009999e-004,-1.039187680790510e-016

 18	1.042317429393303e+001,0.000000000000000e+000
	1.463140899684914e-001,-4.876655158230218e-003
	9.998826926652955e-002,-2.281275633101389e-004
	-1.000000000009999e-004,-1.041583257308025e-016

 19	1.044720219220799e+001,0.000000000000000e+000
	1.463119965969517e-001,-4.887692135888050e-003
	9.998826127406912e-002,-2.286533906513113e-004
	-1.000000000009999e-004,-1.043984356210566e-016

 20	1.047128548050899e+001,0.000000000000000e+000
	1.463098937470587e-001,-4.898753154422918e-003
	9.998825324472158e-002,-2.291804297268653e-004
	-1.000000000009999e-004,-1.046390990229562e-016

 21	1.049542428652321e+001,0.000000000000000e+000
	1.463077813769543e-001,-4.909838259766292e-003
	9.998824517831655e-002,-2.297086833272038e-004
	-1.000000000009999e-004,-1.048803172122417e-016

 22	1.051961873823222e+001,0.000000000000000e+000
	1.463056594441712e-001,-4.920947497845957e-003
	9.998823707468309e-002,-2.302381542491462e-004
	-1.000000000009999e-004,-1.051220914679757e-016

 23	1.054386896391258e+001,0.000000000000000e+000
	1.463035279068631e-001,-4.932080914717893e-003
	9.998822893364935e-002,-2.307688452959411e-004
	-1.000000000009999e-004,-1.053644230723968e-016

 24	1.056817509213657e+001,0.000000000000000e+000
	1.463013867219572e-001,-4.943238556370667e-003
	9.998822075504280e-002,-2.313007592772652e-004
	-1.000000000009999e-004,-1.056073133093870e-016

 25	1.059253725177288e+001,0.000000000000000e+000
	1.462992358459758e-001,-4.954420468799205e-003
	9.998821253869006e-002,-2.318338990092651e-004
	-1.000000000009999e-004,-1.058507634671043e-016

 26	1.061695557198724e+001,0.000000000000000e+000
	1.462970752370831e-001,-4.965626698251629e-003
	9.998820428441690e-002,-2.323682673145609e-004
	-1.000000000009999e-004,-1.060947748369675e-016

 27	1.064143018224315e+001,0.000000000000000e+000
	1.462949048513962e-001,-4.976857290804879e-003
	9.998819599204831e-002,-2.329038670222461e-004
	-1.000000000009999e-004,-1.063393487121266e-016

 28	1.066596121230257e+001,0.000000000000000e+000
	1.462927246460594e-001,-4.988112292703468e-003
	9.998818766140853e-002,-2.334407009679201e-004
	-1.000000000009999e-004,-1.065844863892250e-016

 29	1.069054879222657e+001,0.000000000000000e+000
	1.462905345773955e-001,-4.999391750180083e-003
	9.998817929232098e-002,-2.339787719937029e-004
	-1.000000000009999e-004,-1.068301891684288e-016

 30	1.071519305237605e+001,0.000000000000000e+000
	1.462883346019341e-001,-5.010695709534496e-003
	9.998817088460817e-002,-2.345180829482347e-004
	-1.000000000009999e-004,-1.070764583518946e-016

 31	1.073989412341243e+001,0.000000000000000e+000
	1.462861246751788e-001,-5.022024217013320e-003
	9.998816243809189e-002,-2.350586366867101e-004
	-1.000000000009999e-004,-1.073232952457062e-016

 32	1.076465213629833e+001,0.000000000000000e+000
	1.462839047532456e-001,-5.033377318998458e-003
	9.998815395259304e-002,-2.356004360708832e-004
	-1.000000000009999e-004,-1.075707011588646e-016

 33	1.078946722229827e+001,0.000000000000000e+000
	1.462816747926584e-001,-5.044755061972136e-003
	9.998814542793182e-002,-2.361434839690717e-004
	-1.000000000009999e-004,-1.078186774022742e-016

 34	1.081433951297936e+001,0.000000000000000e+000
	1.462794347474785e-001,-5.056157492199538e-003
	9.998813686392745e-002,-2.366877832561970e-004
	-1.000000000009999e-004,-1.080672252912023e-016

 35	1.083926914021202e+001,0.000000000000000e+000
	1.462771845746316e-001,-5.067584656331413e-003
	9.998812826039835e-002,-2.372333368137802e-004
	-1.000000000009999e-004,-1.083163461433994e-016

 36	1.086425623617064e+001,0.000000000000000e+000
	1.462749242281698e-001,-5.079036600749693e-003
	9.998811961716216e-002,-2.377801475299590e-004
	-1.000000000009999e-004,-1.085660412793025e-016

 37	1.088930093333432e+001,0.000000000000000e+000
	1.462726536633696e-001,-5.090513372029786e-003
	9.998811093403565e-002,-2.383282182995153e-004
	-1.000000000009999e-004,-1.088163120232791e-016

 38	1.091440336448755e+001,0.000000000000000e+000
	1.462703728352950e-001,-5.102015016788199e-003
	9.998810221083473e-002,-2.388775520238768e-004
	-1.000000000009999e-004,-1.090671597022682e-016

 39	1.093956366272092e+001,0.000000000000000e+000
	1.462680816987982e-001,-5.113541581669517e-003
	9.998809344737444e-002,-2.394281516111389e-004
	-1.000000000009999e-004,-1.093185856465041e-016

 40	1.096478196143183e+001,0.000000000000000e+000
	1.462657802070839e-001,-5.125093113197465e-003
	9.998808464346912e-002,-2.399800199760618e-004
	-1.000000000009999e-004,-1.095705911876389e-016

 41	1.099005839432519e+001,0.000000000000000e+000
	1.462634683156012e-001,-5.136669658201114e-003
	9.998807579893200e-002,-2.405331600401286e-004
	-1.000000000009999e-004,-1.098231776631070e-016

 42	1.101539309541413e+001,0.000000000000000e+000
	1.462611459783560e-001,-5.148271263402070e-003
	9.998806691357562e-002,-2.410875747315211e-004
	-1.000000000009999e-004,-1.100763464121675e-016

 43	1.104078619902071e+001,0.000000000000000e+000
	1.462588131483187e-001,-5.159897975464590e-003
	9.998805798721164e-002,-2.416432669851445e-004
	-1.000000000009999e-004,-1.103300987767994e-016

 44	1.106623783977664e+001,0.000000000000000e+000
	1.462564697794716e-001,-5.171549841229718e-003
	9.998804901965078e-002,-2.422002397426421e-004
	-1.000000000009999e-004,-1.105844361017321e-016

 45	1.109174815262399e+001,0.000000000000000e+000
	1.462541158257869e-001,-5.183226907576528e-003
	9.998804001070301e-002,-2.427584959524293e-004
	-1.000000000009999e-004,-1.108393597362112e-016

 46	1.111731727281589e+001,0.000000000000000e+000
	1.462517512399922e-001,-5.194929221317659e-003
	9.998803096017728e-002,-2.433180385696786e-004
	-1.000000000009999e-004,-1.110948710310781e-016

 47	1.114294533591727e+001,0.000000000000000e+000
	1.462493759745977e-001,-5.206656829285282e-003
	9.998802186788172e-002,-2.438788705563709e-004
	-1.000000000009999e-004,-1.113509713422702e-016

 48	1.116863247780558e+001,0.000000000000000e+000
	1.462469899835313e-001,-5.218409778537670e-003
	9.998801273362362e-002,-2.444409948812746e-004
	-1.000000000009999e-004,-1.116076620272088e-016

 49	1.119437883467149e+001,0.000000000000000e+000
	1.462445932194777e-001,-5.230188116035490e-003
	9.998800355720934e-002,-2.450044145199712e-004
	-1.000000000009999e-004,-1.118649444458693e-016

 50	1.122018454301961e+001,0.000000000000000e+000
	1.462421856338753e-001,-5.241991888658242e-003
	9.998799433844431e-002,-2.455691324548994e-004
	-1.000000000009999e-004,-1.121228199635869e-016

 51	1.124604973966924e+001,0.000000000000000e+000
	1.462397671795787e-001,-5.253821143502981e-003
	9.998798507713319e-002,-2.461351516753277e-004
	-1.000000000009999e-004,-1.123812899467517e-016

 52	1.127197456175508e+001,0.000000000000000e+000
	1.462373378086056e-001,-5.265675927620883e-003
	9.998797577307950e-002,-2.467024751774055e-004
	-1.000000000009999e-004,-1.126403557664799e-016

 53	1.129795914672795e+001,0.000000000000000e+000
	1.462348974725450e-001,-5.277556288068395e-003
	9.998796642608615e-002,-2.472711059641428e-004
	-1.000000000009999e-004,-1.129000187948311e-016

 54	1.132400363235554e+001,0.000000000000000e+000
	1.462324461235795e-001,-5.289462272030495e-003
	9.998795703595489e-002,-2.478410470454829e-004
	-1.000000000009999e-004,-1.131602804107323e-016

 55	1.135010815672312e+001,0.000000000000000e+000
	1.462299837128477e-001,-5.301393926617805e-003
	9.998794760248674e-002,-2.484123014382409e-004
	-1.000000000009999e-004,-1.134211419920352e-016

 56	1.137627285823428e+001,0.000000000000000e+000
	1.462275101916717e-001,-5.313351299015054e-003
	9.998793812548165e-002,-2.489848721661970e-004
	-1.000000000009999e-004,-1.136826049235197e-016

 57	1.140249787561165e+001,0.000000000000000e+000
	1.462250255109406e-001,-5.325334436416073e-003
	9.998792860473875e-002,-2.495587622600505e-004
	-1.000000000009999e-004,-1.139446705905123e-016

 58	1.142878334789768e+001,0.000000000000000e+000
	1.462225296217259e-001,-5.337343386079583e-003
	9.998791904005622e-002,-2.501339747574671e-004
	-1.000000000009999e-004,-1.142073403822081e-016

 59	1.145512941445532e+001,0.000000000000000e+000
	1.462200224742547e-001,-5.349378195229898e-003
	9.998790943123130e-002,-2.507105127031038e-004
	-1.000000000009999e-004,-1.144706156924003e-016

 60	1.148153621496879e+001,0.000000000000000e+000
	1.462175040193446e-001,-5.361438911199419e-003
	9.998789977806027e-002,-2.512883791485832e-004
	-1.000000000009999e-004,-1.147344979155167e-016

 61	1.150800388944432e+001,0.000000000000000e+000
	1.462149742071723e-001,-5.373525581302455e-003
	9.998789008033851e-002,-2.518675771525644e-004
	-1.000000000009999e-004,-1.149989884520323e-016

 62	1.153453257821089e+001,0.000000000000000e+000
	1.462124329874776e-001,-5.385638252860998e-003
	9.998788033786046e-002,-2.524481097807094e-004
	-1.000000000009999e-004,-1.152640887034676e-016

 63	1.156112242192095e+001,0.000000000000000e+000
	1.462098803101793e-001,-5.397776973249242e-003
	9.998787055041959e-002,-2.530299801057229e-004
	-1.000000000009999e-004,-1.155298000748491e-016

 64	1.158777356155122e+001,0.000000000000000e+000
	1.462073161249607e-001,-5.409941789887323e-003
	9.998786071780835e-002,-2.536131912073838e-004
	-1.000000000009999e-004,-1.157961239763014e-016

 65	1.161448613840339e+001,0.000000000000000e+000
	1.462047403808630e-001,-5.422132750154057e-003
	9.998785083981843e-002,-2.541977461725230e-004
	-1.000000000009999e-004,-1.160630618190900e-016

 66	1.164126029410487e+001,0.000000000000000e+000
	1.462021530277149e-001,-5.434349901579530e-003
	9.998784091624031e-002,-2.547836480950660e-004
	-1.000000000009999e-004,-1.163306150184266e-016

 67	1.166809617060958e+001,0.000000000000000e+000
	1.461995540142908e-001,-5.446593291615955e-003
	9.998783094686368e-002,-2.553709000760454e-004
	-1.000000000009999e-004,-1.165987849929817e-016

 68	1.169499391019867e+001,0.000000000000000e+000
	1.461969432887207e-001,-5.458862967678503e-003
	9.998782093147718e-002,-2.559595052236180e-004
	-1.000000000009999e-004,-1.168675731650882e-016

 69	1.172195365548126e+001,0.000000000000000e+000
	1.461943207999173e-001,-5.471158977342981e-003
	9.998781086986860e-002,-2.565494666530612e-004
	-1.000000000009999e-004,-1.171369809586931e-016

 70	1.174897554939525e+001,0.000000000000000e+000
	1.461916864965562e-001,-5.483481368194060e-003
	9.998780076182448e-002,-2.571407874868337e-004
	-1.000000000009999e-004,-1.174070098038976e-016

 71	1.177605973520803e+001,0.000000000000000e+000
	1.461890403264603e-001,-5.495830187761822e-003
	9.998779060713071e-002,-2.577334708545276e-004
	-1.000000000009999e-004,-1.176776611303994e-016

 72	1.180320635651725e+001,0.000000000000000e+000
	1.461863822370071e-001,-5.508205483575197e-003
	9.998778040557195e-002,-2.583275198929528e-004
	-1.000000000009999e-004,-1.179489363744601e-016

 73	1.183041555725160e+001,0.000000000000000e+000
	1.461837121765600e-001,-5.520607303326841e-003
	9.998777015693194e-002,-2.589229377461077e-004
	-1.000000000009999e-004,-1.182208369742570e-016

 74	1.185768748167156e+001,0.000000000000000e+000
	1.461810300924226e-001,-5.533035694632258e-003
	9.998775986099341e-002,-2.595197275652059e-004
	-1.000000000009999e-004,-1.184933643709527e-016

 75	1.188502227437014e+001,0.000000000000000e+000
	1.461783359318604e-001,-5.545490705140037e-003
	9.998774951753818e-002,-2.601178925087034e-004
	-1.000000000009999e-004,-1.187665200097709e-016

 76	1.191242008027370e+001,0.000000000000000e+000
	1.461756296414853e-001,-5.557972382477779e-003
	9.998773912634695e-002,-2.607174357423033e-004
	-1.000000000009999e-004,-1.190403053388127e-016

 77	1.193988104464268e+001,0.000000000000000e+000
	1.461729111684833e-001,-5.570480774378398e-003
	9.998772868719942e-002,-2.613183604389807e-004
	-1.000000000009999e-004,-1.193147218099553e-016

 78	1.196740531307239e+001,0.000000000000000e+000
	1.461701804589762e-001,-5.583015928498604e-003
	9.998771819987436e-002,-2.619206697789921e-004
	-1.000000000009999e-004,-1.195897708780194e-016

 79	1.199499303149374e+001,0.000000000000000e+000
	1.461674374598615e-001,-5.595577892634566e-003
	9.998770766414936e-002,-2.625243669498971e-004
	-1.000000000009999e-004,-1.198654540014932e-016

 80	1.202264434617408e+001,0.000000000000000e+000
	1.461646821171772e-001,-5.608166714512960e-003
	9.998769707980117e-002,-2.631294551465685e-004
	-1.000000000009999e-004,-1.201417726416985e-016

 81	1.205035940371792e+001,0.000000000000000e+000
	1.461619143767109e-001,-5.620782441891450e-003
	9.998768644660541e-002,-2.637359375712123e-004
	-1.000000000009999e-004,-1.204187282631708e-016

 82	1.207813835106775e+001,0.000000000000000e+000
	1.461591341840037e-001,-5.633425122517578e-003
	9.998767576433673e-002,-2.643438174333991e-004
	-1.000000000009999e-004,-1.206963223352516e-016

 83	1.210598133550477e+001,0.000000000000000e+000
	1.461563414847524e-001,-5.646094804229883e-003
	9.998766503276858e-002,-2.649530979500545e-004
	-1.000000000009999e-004,-1.209745563293460e-016

 84	1.213388850464972e+001,0.000000000000000e+000
	1.461535362239961e-001,-5.658791534808663e-003
	9.998765425167348e-002,-2.655637823454931e-004
	-1.000000000009999e-004,-1.212534317206910e-016

 85	1.216186000646363e+001,0.000000000000000e+000
	1.461507183469308e-001,-5.671515362097203e-003
	9.998764342082298e-002,-2.661758738514337e-004
	-1.000000000009999e-004,-1.215329499882136e-016

 86	1.218989598924861e+001,0.000000000000000e+000
	1.461478877978850e-001,-5.684266333886088e-003
	9.998763253998752e-002,-2.667893757070002e-004
	-1.000000000009999e-004,-1.218131126128320e-016

 87	1.221799660164866e+001,0.000000000000000e+000
	1.461450445221607e-001,-5.697044498120938e-003
	9.998762160893630e-002,-2.674042911587756e-004
	-1.000000000009999e-004,-1.220939210814716e-016

 88	1.224616199265043e+001,0.000000000000000e+000
	1.461421884633746e-001,-5.709849902580250e-003
	9.998761062743777e-002,-2.680206234607678e-004
	-1.000000000009999e-004,-1.223753768815558e-016

 89	1.227439231158401e+001,0.000000000000000e+000
	1.461393195661137e-001,-5.722682595205730e-003
	9.998759959525906e-002,-2.686383758744732e-004
	-1.000000000009999e-004,-1.226574815060618e-016

 90	1.230268770812376e+001,0.000000000000000e+000
	1.461364377738917e-001,-5.735542623840686e-003
	9.998758851216630e-002,-2.692575516688710e-004
	-1.000000000009999e-004,-1.229402364509576e-016

 91	1.233104833228903e+001,0.000000000000000e+000
	1.461335430307807e-001,-5.748430036450459e-003
	9.998757737792466e-002,-2.698781541204302e-004
	-1.000000000009999e-004,-1.232236432143649e-016

 92	1.235947433444505e+001,0.000000000000000e+000
	1.461306352791671e-001,-5.761344880811680e-003
	9.998756619229803e-002,-2.705001865131614e-004
	-1.000000000009999e-004,-1.235077033000613e-016

 93	1.238796586530363e+001,0.000000000000000e+000
	1.461277144636260e-001,-5.774287205033788e-003
	9.998755495504930e-002,-2.711236521386005e-004
	-1.000000000009999e-004,-1.237924182140461e-016

 94	1.241652307592405e+001,0.000000000000000e+000
	1.461247805262274e-001,-5.787257056940832e-003
	9.998754366594029e-002,-2.717485542958273e-004
	-1.000000000009999e-004,-1.240777894647471e-016

 95	1.244514611771379e+001,0.000000000000000e+000
	1.461218334098015e-001,-5.800254484485991e-003
	9.998753232473175e-002,-2.723748962915109e-004
	-1.000000000009999e-004,-1.243638185658289e-016

 96	1.247383514242937e+001,0.000000000000000e+000
	1.461188730567115e-001,-5.813279535612524e-003
	9.998752093118325e-002,-2.730026814399074e-004
	-1.000000000009999e-004,-1.246505070343172e-016

 97	1.250259030217714e+001,0.000000000000000e+000
	1.461158994098740e-001,-5.826332258367833e-003
	9.998750948505324e-002,-2.736319130628698e-004
	-1.000000000009999e-004,-1.249378563897682e-016

 98	1.253141174941410e+001,0.000000000000000e+000
	1.461129124103100e-001,-5.839412700587783e-003
	9.998749798609918e-002,-2.742625944898789e-004
	-1.000000000009999e-004,-1.252258681556877e-016

 99	1.256029963694868e+001,0.000000000000000e+000
	1.461099119999986e-001,-5.852520910278094e-003
	9.998748643407728e-002,-2.748947290580481e-004
	-1.000000000009999e-004,-1.255145438583506e-016

 100	1.258925411794161e+001,0.000000000000000e+000
	1.461068981210626e-001,-5.865656935493645e-003
	9.998747482874265e-002,-2.755283201121687e-004
	-1.000000000009999e-004,-1.258038850294389e-016

 101	1.261827534590664e+001,0.000000000000000e+000
	1.461038707143367e-001,-5.878820824161949e-003
	9.998746316984929e-002,-2.761633710046946e-004
	-1.000000000009999e-004,-1.260938932029505e-016

 102	1.264736347471145e+001,0.000000000000000e+000
	1.461008297203885e-001,-5.892012624208671e-003
	9.998745145715013e-002,-2.767998850957697e-004
	-1.000000000009999e-004,-1.263845699161030e-016

 103	1.267651865857839e+001,0.000000000000000e+000
	1.460977750811490e-001,-5.905232383776975e-003
	9.998743969039681e-002,-2.774378657532543e-004
	-1.000000000009999e-004,-1.266759167102341e-016

 104	1.270574105208535e+001,0.000000000000000e+000
	1.460947067360356e-001,-5.918480150710241e-003
	9.998742786934002e-002,-2.780773163527317e-004
	-1.000000000009999e-004,-1.269679351297945e-016

 105	1.273503081016655e+001,0.000000000000000e+000
	1.460916246260314e-001,-5.931755973092600e-003
	9.998741599372905e-002,-2.787182402775407e-004
	-1.000000000009999e-004,-1.272606267237707e-016

 106	1.276438808811337e+001,0.000000000000000e+000
	1.460885286910314e-001,-5.945059898904561e-003
	9.998740406331233e-002,-2.793606409187608e-004
	-1.000000000009999e-004,-1.275539930424238e-016

 107	1.279381304157518e+001,0.000000000000000e+000
	1.460854188708623e-001,-5.958391976148478e-003
	9.998739207783693e-002,-2.800045216752828e-004
	-1.000000000009999e-004,-1.278480356427008e-016

 108	1.282330582656014e+001,0.000000000000000e+000
	1.460822951052821e-001,-5.971752252844723e-003
	9.998738003704877e-002,-2.806498859537765e-004
	-1.000000000009999e-004,-1.281427560832375e-016

 109	1.285286659943608e+001,0.000000000000000e+000
	1.460791573327542e-001,-5.985140776879978e-003
	9.998736794069256e-002,-2.812967371687292e-004
	-1.000000000009999e-004,-1.284381559263036e-016

 110	1.288249551693127e+001,0.000000000000000e+000
	1.460760054937094e-001,-5.998557596437401e-003
	9.998735578851202e-002,-2.819450787424694e-004
	-1.000000000009999e-004,-1.287342367385299e-016

 111	1.291219273613527e+001,0.000000000000000e+000
	1.460728395262640e-001,-6.012002759416261e-003
	9.998734358024958e-002,-2.825949141051661e-004
	-1.000000000009999e-004,-1.290310000890349e-016

 112	1.294195841449979e+001,0.000000000000000e+000
	1.460696593686644e-001,-6.025476313766737e-003
	9.998733131564634e-002,-2.832462466948759e-004
	-1.000000000009999e-004,-1.293284475524082e-016

 113	1.297179270983948e+001,0.000000000000000e+000
	1.460664649598981e-001,-6.038978307573375e-003
	9.998731899444244e-002,-2.838990799575173e-004
	-1.000000000009999e-004,-1.296265807042366e-016

 114	1.300169578033283e+001,0.000000000000000e+000
	1.460632562376547e-001,-6.052508788766475e-003
	9.998730661637663e-002,-2.845534173469447e-004
	-1.000000000009999e-004,-1.299254011268613e-016

 115	1.303166778452292e+001,0.000000000000000e+000
	1.460600331399545e-001,-6.066067805358756e-003
	9.998729418118671e-002,-2.852092623249021e-004
	-1.000000000009999e-004,-1.302249104028242e-016

 116	1.306170888131834e+001,0.000000000000000e+000
	1.460567956041301e-001,-6.079655405292538e-003
	9.998728168860893e-002,-2.858666183611061e-004
	-1.000000000009999e-004,-1.305251101214925e-016

 117	1.309181922999399e+001,0.000000000000000e+000
	1.460535435680456e-001,-6.093271636619585e-003
	9.998726913837853e-002,-2.865254889332155e-004
	-1.000000000009999e-004,-1.308260018742354e-016

 118	1.312199899019195e+001,0.000000000000000e+000
	1.460502769682647e-001,-6.106916547232380e-003
	9.998725653022954e-002,-2.871858775268654e-004
	-1.000000000009999e-004,-1.311275872558524e-016

 119	1.315224832192230e+001,0.000000000000000e+000
	1.460469957418812e-001,-6.120590185131716e-003
	9.998724386389468e-002,-2.878477876356955e-004
	-1.000000000009999e-004,-1.314298678658180e-016

 120	1.318256738556399e+001,0.000000000000000e+000
	1.460436998255012e-001,-6.134292598267094e-003
	9.998723113910553e-002,-2.885112227613507e-004
	-1.000000000009999e-004,-1.317328453064098e-016

 121	1.321295634186567e+001,0.000000000000000e+000
	1.460403891546283e-001,-6.148023834479713e-003
	9.998721835559232e-002,-2.891761864135166e-004
	-1.000000000009999e-004,-1.320365211844811e-016

 122	1.324341535194656e+001,0.000000000000000e+000
	1.460370636665188e-001,-6.161783941855545e-003
	9.998720551308411e-002,-2.898426821099259e-004
	-1.000000000009999e-004,-1.323408971102800e-016

 123	1.327394457729731e+001,0.000000000000000e+000
	1.460337232965080e-001,-6.175572968267699e-003
	9.998719261130877e-002,-2.905107133763595e-004
	-1.000000000009999e-004,-1.326459746957513e-016

 124	1.330454417978083e+001,0.000000000000000e+000
	1.460303679798495e-001,-6.189390961577075e-003
	9.998717964999264e-002,-2.911802837467375e-004
	-1.000000000009999e-004,-1.329517555618563e-016

 125	1.333521432163315e+001,0.000000000000000e+000
	1.460269976521160e-001,-6.203237969725677e-003
	9.998716662886122e-002,-2.918513967630165e-004
	-1.000000000009999e-004,-1.332582413262959e-016

 126	1.336595516546433e+001,0.000000000000000e+000
	1.460236122483861e-001,-6.217114040611430e-003
	9.998715354763843e-002,-2.925240559753307e-004
	-1.000000000009999e-004,-1.335654336160330e-016

 127	1.339676687425926e+001,0.000000000000000e+000
	1.460202117028359e-001,-6.231019222022597e-003
	9.998714040604692e-002,-2.931982649419264e-004
	-1.000000000009999e-004,-1.338733340588281e-016

 128	1.342764961137855e+001,0.000000000000000e+000
	1.460167959505700e-001,-6.244953561904753e-003
	9.998712720380833e-002,-2.938740272292367e-004
	-1.000000000009999e-004,-1.341819442886578e-016

 129	1.345860354055939e+001,0.000000000000000e+000
	1.460133649259921e-001,-6.258917108125203e-003
	9.998711394064262e-002,-2.945513464118375e-004
	-1.000000000009999e-004,-1.344912659398462e-016

 130	1.348962882591644e+001,0.000000000000000e+000
	1.460099185623974e-001,-6.272909908412395e-003
	9.998710061626889e-002,-2.952302260725427e-004
	-1.000000000009999e-004,-1.348013006543921e-016

 131	1.352072563194268e+001,0.000000000000000e+000
	1.460064567935984e-001,-6.286932010595419e-003
	9.998708723040453e-002,-2.959106698023475e-004
	-1.000000000009999e-004,-1.351120500747168e-016

 132	1.355189412351027e+001,0.000000000000000e+000
	1.460029795533150e-001,-6.300983462505288e-003
	9.998707378276597e-002,-2.965926812004894e-004
	-1.000000000009999e-004,-1.354235158476918e-016

 133	1.358313446587145e+001,0.000000000000000e+000
	1.459994867749694e-001,-6.315064311951707e-003
	9.998706027306809e-002,-2.972762638744934e-004
	-1.000000000009999e-004,-1.357356996274495e-016

 134	1.361444682465940e+001,0.000000000000000e+000
	1.459959783908706e-001,-6.329174606604176e-003
	9.998704670102462e-002,-2.979614214400929e-004
	-1.000000000009999e-004,-1.360486030655336e-016

 135	1.364583136588915e+001,0.000000000000000e+000
	1.459924543340454e-001,-6.343314394252113e-003
	9.998703306634788e-002,-2.986481575213802e-004
	-1.000000000009999e-004,-1.363622278241172e-016

 136	1.367728825595839e+001,0.000000000000000e+000
	1.459889145368133e-001,-6.357483722600836e-003
	9.998701936874883e-002,-2.993364757507094e-004
	-1.000000000009999e-004,-1.366765755644188e-016

 137	1.370881766164844e+001,0.000000000000000e+000
	1.459853589307840e-001,-6.371682639275459e-003
	9.998700560793719e-002,-3.000263797687802e-004
	-1.000000000009999e-004,-1.369916479531572e-016

 138	1.374041975012505e+001,0.000000000000000e+000
	1.459817874482834e-001,-6.385911192008662e-003
	9.998699178362133e-002,-3.007178732246513e-004
	-1.000000000009999e-004,-1.373074466620673e-016

 139	1.377209468893936e+001,0.000000000000000e+000
	1.459782000207207e-001,-6.400169428434660e-003
	9.998697789550821e-002,-3.014109597757198e-004
	-1.000000000009999e-004,-1.376239733639477e-016

 140	1.380384264602875e+001,0.000000000000000e+000
	1.459745965794067e-001,-6.414457396167618e-003
	9.998696394330352e-002,-3.021056430877839e-004
	-1.000000000009999e-004,-1.379412297370346e-016

 141	1.383566378971771e+001,0.000000000000000e+000
	1.459709770551408e-001,-6.428775142776152e-003
	9.998694992671145e-002,-3.028019268350605e-004
	-1.000000000009999e-004,-1.382592174648642e-016

 142	1.386755828871878e+001,0.000000000000000e+000
	1.459673413792296e-001,-6.443122715912887e-003
	9.998693584543499e-002,-3.034998147001682e-004
	-1.000000000009999e-004,-1.385779382326695e-016

 143	1.389952631213343e+001,0.000000000000000e+000
	1.459636894816556e-001,-6.457500163046830e-003
	9.998692169917570e-002,-3.041993103741674e-004
	-1.000000000009999e-004,-1.388973937294967e-016

 144	1.393156802945292e+001,0.000000000000000e+000
	1.459600212924991e-001,-6.471907531675074e-003
	9.998690748763374e-002,-3.049004175565985e-004
	-1.000000000009999e-004,-1.392175856501525e-016

 145	1.396368361055927e+001,0.000000000000000e+000
	1.459563367419369e-001,-6.486344869320411e-003
	9.998689321050783e-002,-3.056031399554720e-004
	-1.000000000009999e-004,-1.395385156922899e-016

 146	1.399587322572607e+001,0.000000000000000e+000
	1.459526357590216e-001,-6.500812223354122e-003
	9.998687886749552e-002,-3.063074812872911e-004
	-1.000000000009999e-004,-1.398601855566246e-016

 147	1.402813704561947e+001,0.000000000000000e+000
	1.459489182739168e-001,-6.515309641318468e-003
	9.998686445829275e-002,-3.070134452770911e-004
	-1.000000000009999e-004,-1.401825969492209e-016

 148	1.406047524129903e+001,0.000000000000000e+000
	1.459451842154577e-001,-6.529837170566745e-003
	9.998684998259413e-002,-3.077210356584370e-004
	-1.000000000009999e-004,-1.405057515791056e-016

 149	1.409288798421864e+001,0.000000000000000e+000
	1.459414335119617e-001,-6.544394858388099e-003
	9.998683544009281e-002,-3.084302561734628e-004
	-1.000000000009999e-004,-1.408296511603852e-016

 150	1.412537544622743e+001,0.000000000000000e+000
	1.459376660924468e-001,-6.558982752185841e-003
	9.998682083048066e-002,-3.091411105728625e-004
	-1.000000000009999e-004,-1.411542974093364e-016

 151	1.415793779957070e+001,0.000000000000000e+000
	1.459338818848039e-001,-6.573600899195085e-003